 Gaussian 16, Revision A.03,
 Gaussian 16:  ES64L-G16RevA.03 25-Dec-2016

 -------------------------------------------------------
 # b3lyp/6-31G(d) pop=full gfinput iop(3/33=1) scf=tight
 -------------------------------------------------------

 -------------------
 benzene-1,4-dithiol
 -------------------
 Symbolic Z-matrix:
 Charge =  0 Multiplicity = 1

                         Standard orientation:
 ---------------------------------------------------------------------
 Center     Atomic      Atomic             Coordinates (Angstroms)
 Number     Number       Type             X           Y           Z
 ---------------------------------------------------------------------
      1          6           0        1.408580   -0.001219    0.000041
      2          6           0        0.698128    1.204938    0.000003
      3          6           0        0.694594   -1.205621    0.000049
      4          1           0        1.226634    2.154373   -0.000034
      5          1           0        1.224915   -2.154124    0.000077
      6          6           0       -0.694627    1.205663    0.000022
      7          6           0       -0.698099   -1.204901    0.000032
      8          1           0       -1.224864    2.154214   -0.000004
      9          1           0       -1.226668   -2.154301    0.000059
     10          6           0       -1.408582    0.001316    0.000021
     11         16           0       -3.194797    0.083595   -0.000041
     12         16           0        3.194788   -0.083665   -0.000082
     13          1           0        3.417098    1.246439    0.000722
     14          1           0       -3.416928   -1.246540    0.000143
 ---------------------------------------------------------------------

 SCF Done:  E(RB3LYP) =  -1028.61877355     A.U. after   13 cycles

 The electronic state is 1-A.
 Alpha  occ. eigenvalues --  -88.89187 -88.89187 -10.23320 -10.23319 -10.20583
 Alpha  occ. eigenvalues --  -10.20582 -10.20440 -10.20439  -7.95510  -7.95510
 Alpha  occ. eigenvalues --   -5.92021  -5.92021  -5.91623  -5.91623  -5.90966
 Alpha  occ. eigenvalues --   -5.90966  -0.87691  -0.81278  -0.75997  -0.75431
 Alpha  occ. eigenvalues --   -0.68731  -0.62568  -0.59211  -0.51164  -0.48764
 Alpha  occ. eigenvalues --   -0.46649  -0.43674  -0.42375  -0.40553  -0.39119
 Alpha  occ. eigenvalues --   -0.36148  -0.35542  -0.33626  -0.32453  -0.26376
 Alpha  occ. eigenvalues --   -0.26230  -0.20733
 Alpha virt. eigenvalues --   -0.01324  -0.00858   0.00361   0.01961   0.06589
 Alpha virt. eigenvalues --    0.07067   0.12554   0.13055   0.14060   0.17280
 Alpha virt. eigenvalues --    0.17688   0.24830   0.24976   0.28490   0.29128

 Mulliken charges:
               1
     1  C   -0.063037
     2  C   -0.143866
     3  C   -0.146004
     4  H    0.133402
     5  H    0.146662
     6  C   -0.146012
     7  C   -0.143855
     8  H    0.146659
     9  H    0.133403
    10  C   -0.063044
    11  S   -0.023688
    12  S   -0.023696
    13  H    0.096540
    14  H    0.096537
 Sum of Mulliken charges =   0.00000

 Dipole moment (field-independent basis, Debye):
    X=              0.0001    Y=              0.0000    Z=              0.0007  Tot=              0.0007
 Quadrupole moment (field-independent basis, Debye-Ang):
   XX=            -62.9733   YY=            -52.6514   ZZ=            -66.7897
   XY=              7.6284   XZ=              0.0018   YZ=              0.0012

 Normal termination of Gaussian 16 at Wed Aug 28 11:19:05 2019.
